ITEM: TIMESTEP
0
ITEM: NUMBER OF ATOMS
2
ITEM: BOX BOUNDS pp ff pp
0.0000000000000000e+00 2.8000000000000000e+01
-5.0000000000000000e-01 2.2500000000000000e+01
-1.0000000000000000e+00 1.0000000000000000e+00
ITEM: ATOMS id x y vx vy diameter 
1 10.0 10.0 2.0 0.0 0.46 
2 10.0 10.0 1.0 -2.0 0.46 
ITEM: TIMESTEP
5000
ITEM: NUMBER OF ATOMS
2
ITEM: BOX BOUNDS pp ff pp
0.0000000000000000e+00 2.8000000000000000e+01
-5.0000000000000000e-01 2.2500000000000000e+01
-1.0000000000000000e+00 1.0000000000000000e+00
ITEM: ATOMS id x y vx vy diameter 
1 10.0 10.0 2.0 0.0 0.46 
2 10.0 10.0 1.0 -2.0 0.46 
ITEM: TIMESTEP
10000
ITEM: NUMBER OF ATOMS
2
ITEM: BOX BOUNDS pp ff pp
0.0000000000000000e+00 2.8000000000000000e+01
-5.0000000000000000e-01 2.2500000000000000e+01
-1.0000000000000000e+00 1.0000000000000000e+00
ITEM: ATOMS id x y vx vy diameter 
1 10.0 10.0 2.0 0.0 0.46 
2 10.0 10.0 1.0 -2.0 0.46 
